FoamFile
{
    version     2.0;
    format      ascii;
    class       volScalarField;
    location    "1";
    object      T;
}
// * * * * * * * * * * * * * * * * * * * * * * * * * * * * * //

dimensions      [0 0 0 1 0 0 0];

internalField   nonuniform List<scalar>
100
(
    368.000000
    358.000000
    347.999999
    337.999998
    327.999997
    317.999997
    307.999995
    297.999994
    287.999994
    277.999998
    368.000000
    358.000000
    348.000000
    337.999998
    327.999997
    317.999997
    307.999995
    297.999991
    287.999991
    277.999996
    368.000001
    358.000001
    348.000001
    337.999998
    327.999996
    318.000000
    307.999997
    297.999985
    287.999984
    277.999992
    368.000002
    358.000004
    347.999996
    338.000001
    328.000007
    318.000000
    308.000001
    297.999997
    287.999993
    277.999994
    368.000006
    357.999995
    347.999998
    338.000001
    328.000003
    318.000000
    307.999999
    297.999997
    287.999996
    277.999997
    368.000001
    358.000001
    348.000001
    338.000002
    328.000002
    317.999997
    307.999998
    297.999997
    287.999996
    277.999996
    367.999999
    358.000006
    348.000003
    338.000004
    328.000005
    317.999998
    308.000004
    298.000009
    288.000009
    278.000002
    368.000002
    358.000004
    348.000002
    338.000005
    328.000002
    317.999999
    308.000000
    298.000004
    288.000006
    278.000003
    368.000001
    358.000002
    348.000001
    338.000001
    327.999998
    317.999995
    307.999994
    298.000001
    288.000007
    278.000006
    368.000001
    358.000001
    348.000000
    337.999999
    327.999996
    317.999990
    307.999999
    297.999998
    288.000002
    277.999999
);

boundaryField
{
    topInsulatedWall
    {
        type            zeroGradient;
    }
    bottomInsulatedWall
    {
        type            zeroGradient;
    }
    leftFixedWall
    {
        type            fixedValue;
        value           uniform 373;
    }
    rightFixedWall
    {
        type            fixedValue;
        value           uniform 273;
    }
    frontAndBack
    {
        type            empty;
    }
}

// ************************************************************************* //
